LAMMPS data file for finalCG 

1840 atoms 
1656 bonds
1472 angles
1288 dihedrals
   0 impropers 

1 atom types 
1 bond types 
1 angle types 
1 dihedral types 

0.0000 53.7466 xlo xhi
0.0000 53.7466 ylo yhi
0.0000 53.7466 zlo zhi

Masses

1 30 C-C 

Atoms

1 1 1 0.000 41.5521414192 36.1839847578 48.5028935909
2 1 1 0.000 43.6238847361 36.7346992947 50.0707087862
3 1 1 0.000 45.3271144901 37.4317926967 51.7357247076
4 1 1 0.000 47.4423388064 38.4997913853 52.5602244249
5 1 1 0.000 49.634447634 39.8057262721 53.3932906246609
6 1 1 0.000 51.1564975994 38.9687842169 1.57037084613
7 1 1 0.000 51.4297184405 38.4424168898 3.80463313211
8 1 1 0.000 50.5579754618 37.7103881978 6.0706515967
9 1 1 0.000 49.3772164064 36.978198266 8.2006024814
10 1 1 0.000 48.3121200342 36.386985666 10.3223301363
11 2 1 0.000 38.9249269913 23.7344716867 20.042913339
12 2 1 0.000 37.2291680147 25.7554513399 19.6712287267
13 2 1 0.000 35.767824834 28.0121098341 19.8573263292
14 2 1 0.000 34.6692712033 30.4157115327 20.4128243135
15 2 1 0.000 32.6046761842 31.6307877922 19.2667049418
16 2 1 0.000 32.7615356363 33.9259019787 18.7321681315
17 2 1 0.000 34.2340581098 35.3600762531 17.7084566413
18 2 1 0.000 36.1030155049 35.8649180669 15.8288305461
19 2 1 0.000 37.1527134762 37.0322404723 13.9841128676
20 2 1 0.000 36.9846209847 35.8899908558 11.8665774475
21 3 1 0.000 11.500697468 2.19989402261 47.1352576073
22 3 1 0.000 12.4152496136 4.27254834438 46.2541627202
23 3 1 0.000 12.7490697462 6.5482976309 44.9503776974
24 3 1 0.000 12.183548021 8.8386552433 45.3445015152
25 3 1 0.000 12.0476497429 10.7218286141 47.0099742827
26 3 1 0.000 10.3638493848 12.344787821 47.9111703982
27 3 1 0.000 8.2802280693 13.4021984294 48.0472836627
28 3 1 0.000 5.95078324205 13.5932138458 47.1028752808
29 3 1 0.000 3.60961359401 13.8830961329 46.2498361189
30 3 1 0.000 1.35896396969 13.7690189744 44.9253049085
31 4 1 0.000 8.4164757003 17.0286427712 39.1481903677
32 4 1 0.000 6.19967031 17.5557088041 40.266683987
33 4 1 0.000 3.61675382982 17.6579617106 40.6439313724
34 4 1 0.000 1.071249014235 17.5376230732 41.2214385894
35 4 1 0.000 52.3417982425 17.1665834201 41.8409756476
36 4 1 0.000 50.160626848 16.4751334111 43.1673342424
37 4 1 0.000 50.0140598698 14.2498629313 44.3045854251
38 4 1 0.000 49.7948543617 11.9131757497 45.4449807839
39 4 1 0.000 49.9064323033 9.4936919308 46.1941815146
40 4 1 0.000 47.7994312168 7.9082478507 46.2718722249
41 5 1 0.000 29.0878480331 4.34697663606 50.5899546888
42 5 1 0.000 31.6184260742 3.97130402604 49.8181803861
43 5 1 0.000 33.6679989186 3.05139065709 50.9800475116
44 5 1 0.000 35.7561618218 1.87840604738 51.8212624215
45 5 1 0.000 37.7762009095 0.428334066166 52.2912764385
46 5 1 0.000 39.3028193359 52.9744763444 53.439173478995
47 5 1 0.000 40.3399943494 52.2569861077 1.90917060122
48 5 1 0.000 41.7788983246 50.9129448815 3.28343622793
49 5 1 0.000 44.2645173348 50.4262156719 2.65811603557
50 5 1 0.000 46.7215162805 50.0253197825 1.86156186294
51 6 1 0.000 46.9858420593 41.4157325484 9.8177033089
52 6 1 0.000 46.6727681143 43.858569265 9.2985380262
53 6 1 0.000 46.1075688687 46.1994486814 8.5644400901
54 6 1 0.000 45.4759925721 48.5425585817 7.8300196744
55 6 1 0.000 43.9919414529 50.2435578518 7.1420631944
56 6 1 0.000 41.6459023629 50.4457794343 7.5034015862
57 6 1 0.000 39.6935033713 50.8167115942 8.7272922881
58 6 1 0.000 38.3079697699 51.7691550928 10.7032860371
59 6 1 0.000 39.1607670721 53.0847912409 12.8224876018
60 6 1 0.000 40.1921105795 51.8718917187 14.830568071
61 7 1 0.000 11.4847347278 30.5216729546 9.8412174464
62 7 1 0.000 12.9497864239 31.0301695372 11.8969442765
63 7 1 0.000 15.3050968024 30.1859985643 12.4430366058
64 7 1 0.000 17.1363509576 31.4077662755 13.9349347286
65 7 1 0.000 18.7154529389 32.3276930811 15.6405830796
66 7 1 0.000 20.167336718 33.8562463851 17.1484170693
67 7 1 0.000 20.7732490131 35.0355005357 19.0509392161
68 7 1 0.000 20.7733027597 35.3987200585 21.5764919501
69 7 1 0.000 21.6965349812 35.49425464 23.9794218162
70 7 1 0.000 22.1293026044 36.5151981803 26.0580178246
71 8 1 0.000 48.9832269551 34.4241867073 23.6269247401
72 8 1 0.000 49.2038298748 32.1286694213 22.469034863
73 8 1 0.000 49.2900394212 29.7899667422 21.3170839852
74 8 1 0.000 49.5872312459 27.4925683252 20.1666111389
75 8 1 0.000 49.4782062678 25.2519263178 21.3387976116
76 8 1 0.000 50.3596773811 23.4777510518 20.1659124331
77 8 1 0.000 51.49461746 21.7181679877 18.9624723125
78 8 1 0.000 52.8029171972 19.4486909294 18.9724423068
79 8 1 0.000 0.206853733221 16.9442606092 18.5096840808
80 8 1 0.000 1.34991572958 14.7020868237 18.0003275526
81 9 1 0.000 12.6687723258 31.2886100633 21.9308164106
82 9 1 0.000 14.175128284 29.4549910577 21.7312015382
83 9 1 0.000 15.846916277 27.5403490526 21.6701991472
84 9 1 0.000 17.4234384215 25.4881157515 21.3919261257
85 9 1 0.000 19.2510378079 24.9611840851 19.5788651946
86 9 1 0.000 19.5207382467 23.416318688 17.5958575143
87 9 1 0.000 20.2349499408 22.752816911 15.3253592706
88 9 1 0.000 19.804009702 22.5732763937 13.0338998529
89 9 1 0.000 18.408747966 22.7103302237 10.8200236523
90 9 1 0.000 17.6079504993 23.437279862 8.5562974802
91 10 1 0.000 13.8348585594 16.1727819128 4.22388886007
92 10 1 0.000 14.8727860253 14.8513411319 2.12756722299
93 10 1 0.000 16.1847405313 13.3851607572 0.362295081279997
94 10 1 0.000 17.7324813715 11.8429020702 52.7724697483
95 10 1 0.000 19.453044404 11.0272167953 51.3205053493
96 10 1 0.000 21.3035129687 12.6436726636 50.8455466451
97 10 1 0.000 22.6326126401 13.0665777857 48.4825505028
98 10 1 0.000 24.4777334181 14.5400139514 48.4874145701
99 10 1 0.000 26.0599258289 16.2193533417 48.2813501057
100 10 1 0.000 26.8673072541 18.0572720753 47.0454470387
101 11 1 0.000 20.8394916976 16.5052583804 -0.174534558975998
102 11 1 0.000 20.6117136068 17.2920548578 51.2083361951
103 11 1 0.000 19.3826632313 18.1114486481 49.355771513
104 11 1 0.000 16.9916651104 18.6658448271 48.5267570813
105 11 1 0.000 16.1464192055 20.4608737739 47.1575893196
106 11 1 0.000 14.0074926386 21.4377719755 46.3367443711
107 11 1 0.000 12.5670031387 22.8862965921 44.8430994838
108 11 1 0.000 11.6063364103 24.7345884195 43.4753828803
109 11 1 0.000 10.3420282652 26.4688837083 42.2183036529
110 11 1 0.000 9.251670991 28.0295774791 40.4699267549
111 12 1 0.000 19.980567283 52.8477149883 27.7144611633
112 12 1 0.000 21.4723579126 53.92099428035 29.5567602448
113 12 1 0.000 21.8699215128 2.76693946392 29.8300617058
114 12 1 0.000 21.414526571 5.04545401301 29.8719571805
115 12 1 0.000 19.6856059422 6.8847513469 29.6312261591
116 12 1 0.000 17.9117262825 8.6881916366 29.4135524291
117 12 1 0.000 17.0885433569 10.6180439295 28.5033000115
118 12 1 0.000 15.8698392019 12.0837943314 26.7005584276
119 12 1 0.000 14.6113088163 10.5791313911 25.1679472553
120 12 1 0.000 14.7679264087 9.017067082 23.0612417751
121 13 1 0.000 24.2357930982 33.2456850091 6.7139715254
122 13 1 0.000 23.5565435674 34.5795143813 4.9634716367
123 13 1 0.000 22.3446652306 35.7129764287 3.19339454895
124 13 1 0.000 21.6126902852 36.4261938107 0.953926367294
125 13 1 0.000 22.9689588629 37.0416730006 52.9572774324
126 13 1 0.000 24.2223295749 38.8654026318 51.4589565909
127 13 1 0.000 25.6651570519 40.5462469269 50.2768001239
128 13 1 0.000 27.5759830484 41.1456827567 49.1597845361
129 13 1 0.000 29.7985930715 41.1330523057 48.0235545388
130 13 1 0.000 31.8236843396 41.2863107356 46.5873916402
131 14 1 0.000 23.0444997092 25.3838204742 4.13668231424
132 14 1 0.000 22.7573584987 27.5579779374 2.74401385169
133 14 1 0.000 22.0273184309 29.7724722239 1.53620413251
134 14 1 0.000 20.4765677811 31.4388855569 2.67527463762
135 14 1 0.000 18.2896186271 32.4246250742 3.53241735243
136 14 1 0.000 15.9669055615 33.5258391616 4.18668277622
137 14 1 0.000 15.5942803837 35.7159862383 3.39041883523
138 14 1 0.000 16.017561732 38.3732181423 3.41222651818
139 14 1 0.000 14.8536253624 39.960328367 4.60167908613
140 14 1 0.000 12.4365063939 41.0198619661 4.7678071394
141 15 1 0.000 50.4627364866 24.0735321128 45.3785499863
142 15 1 0.000 48.2315807541 24.5959759381 45.2449896853
143 15 1 0.000 45.7409901834 23.9718972922 45.4202842212
144 15 1 0.000 44.558887463 21.8822563575 44.7653819002
145 15 1 0.000 42.8073663889 21.2630686522 43.395811039
146 15 1 0.000 40.8743699199 21.4426091695 41.7987039467
147 15 1 0.000 38.5834748415 21.4307580442 40.6405990832
148 15 1 0.000 36.5828651497 22.4195342444 39.2644442635
149 15 1 0.000 35.815390575 23.1909591942 37.2008166832
150 15 1 0.000 35.4669782405 23.715418517 34.8308872295
151 16 1 0.000 9.9817916787 48.0923501868 19.6411306307
152 16 1 0.000 11.4282201779 50.2155289999 19.878448743
153 16 1 0.000 12.6294566879 51.5056086397 21.4332572611
154 16 1 0.000 13.4133239756 51.9510335872 24.0187105808
155 16 1 0.000 13.7528681211 53.099051288812 26.0607051546
156 16 1 0.000 12.792765732 1.07332766399 27.1566252019
157 16 1 0.000 11.4248341421 2.79924923251 25.8345394618
158 16 1 0.000 9.7135692714 3.98726139158 24.131417201
159 16 1 0.000 8.78488177 4.96345820005 21.9665847729
160 16 1 0.000 7.3401194154 6.1482079405 20.6080050914
161 17 1 0.000 29.7573156827 29.1927882696 29.4379802588
162 17 1 0.000 28.6002588779 27.7862666209 31.3226047878
163 17 1 0.000 27.54244517 26.689755361 33.5643217272
164 17 1 0.000 27.1950002743 24.9943457373 35.1019850799
165 17 1 0.000 27.4879998642 22.5637094989 35.9122688215
166 17 1 0.000 27.945275937 20.0126271299 36.6407233646
167 17 1 0.000 27.9234279441 17.5185430302 37.3122602583
168 17 1 0.000 29.06347395 15.770058639 38.1855887617
169 17 1 0.000 30.0886097251 14.2882917503 39.8354481419
170 17 1 0.000 31.0697807814 12.0870460007 39.3278115049
171 18 1 0.000 53.522552191973 22.417169394 31.2190888362
172 18 1 0.000 2.02936681013 21.7577523586 31.2281720116
173 18 1 0.000 3.96918909733 20.3625981158 31.6958480515
174 18 1 0.000 5.9878818327 19.5513469354 32.6987058609
175 18 1 0.000 7.6982061379 18.4923776756 34.1912489429
176 18 1 0.000 10.0874037477 17.6654862346 34.8590773212
177 18 1 0.000 12.4520391613 16.8923145203 35.7289660422
178 18 1 0.000 14.4805702118 15.8992654654 36.9724205065
179 18 1 0.000 16.5076769774 14.8943652852 37.9749827096
180 18 1 0.000 18.6119369873 14.3172342944 37.1713097998
181 19 1 0.000 37.1912766617 32.0137860638 13.9842741074
182 19 1 0.000 35.4882618941 31.7995521162 12.003765644
183 19 1 0.000 34.824034538 31.3454739661 9.7076033988
184 19 1 0.000 36.8154804345 30.7902447148 8.2274757814
185 19 1 0.000 38.6472451824 30.3100457171 6.5200269193
186 19 1 0.000 40.4334328135 29.4876421172 4.95999423168
187 19 1 0.000 41.9810930338 28.4442324981 3.32703815718
188 19 1 0.000 42.3160149717 26.6129245963 1.8782018103
189 19 1 0.000 41.9364027359 24.2077911196 0.92232659129
190 19 1 0.000 41.4935576252 21.8776878965 0.132908086009
191 20 1 0.000 26.1531224333 35.0196990353 23.5628587929
192 20 1 0.000 27.9207674874 36.6646943482 24.6984975776
193 20 1 0.000 29.0485861418 39.0200316 24.7481863093
194 20 1 0.000 28.2842288699 40.7881872468 26.566406914
195 20 1 0.000 29.3946873725 42.7311537101 27.3987536349
196 20 1 0.000 30.3401438131 45.1334117437 27.7878790189
197 20 1 0.000 31.2932053976 47.566815932 28.1740752132
198 20 1 0.000 31.8084471785 49.7034851417 26.8651036435
199 20 1 0.000 32.3595379416 52.0322984464 26.0315744974
200 20 1 0.000 32.3543513947 54.16396653497 27.593235707
201 21 1 0.000 8.8470665862 39.9757267679 29.0564600187
202 21 1 0.000 6.9330695403 39.315369167 30.6430059041
203 21 1 0.000 6.0632076926 37.7305162995 32.1762889089
204 21 1 0.000 4.96171412288 35.9503751609 33.0293011975
205 21 1 0.000 3.69328898822 36.1047891427 35.309366336
206 21 1 0.000 2.83336219953 37.0722010694 37.5873353571
207 21 1 0.000 1.7324947777 37.8227185918 39.8701684455
208 21 1 0.000 -0.473266761231999 37.0312999068 40.7596209289
209 21 1 0.000 50.9742428788 38.0574031207 40.8716557166
210 21 1 0.000 49.0930312589 36.7382734436 41.3054176519
211 22 1 0.000 4.9549528006 10.1878292698 9.3832157945
212 22 1 0.000 4.92093657746 8.6315695935 7.1772672174
213 22 1 0.000 4.94241371882 8.0886751869 4.60072239665
214 22 1 0.000 5.2165375028 7.4627691566 2.07639777246
215 22 1 0.000 4.76977426496 7.2701413422 -0.295146766569998
216 22 1 0.000 4.0222074309 7.6502104241 51.0445971782
217 22 1 0.000 3.21144534456 7.9344493182 48.5647559275
218 22 1 0.000 2.54463815166 6.9772761188 46.5562186122
219 22 1 0.000 2.24170619008 4.97184804431 44.9112501726
220 22 1 0.000 1.88897262894 2.9616526464 43.5528586042
221 23 1 0.000 40.7798027772 45.5879198666 50.1358765387
222 23 1 0.000 41.2275119552 45.0562584994 52.5103207068
223 23 1 0.000 40.1240136373 44.5184162732 0.79586352882
224 23 1 0.000 38.2094253788 44.4727585365 2.54576951759
225 23 1 0.000 35.8027332507 45.5248213582 2.41666480973
226 23 1 0.000 33.3482872685 46.5299902714 2.27512851329
227 23 1 0.000 31.7103865068 48.068540443 1.43972361085
228 23 1 0.000 32.4147894464 49.7867654984 -0.371028635047002
229 23 1 0.000 32.5024770243 51.8602287065 52.0355232424
230 23 1 0.000 30.6778605742 53.659472461672 52.8213791543
231 24 1 0.000 28.4588515733 52.6511367988 17.066157898
232 24 1 0.000 29.7056652001 0.3147092121783 15.3897476974
233 24 1 0.000 29.8490073823 2.05040322937 13.9881169893
234 24 1 0.000 29.0051857623 4.21841208153 12.9311363537
235 24 1 0.000 27.5723820262 5.93576644201 11.776686259
236 24 1 0.000 26.6999134684 8.2158396425 12.8748636635
237 24 1 0.000 26.5833102197 9.9041278417 14.5486940273
238 24 1 0.000 26.8009839497 11.2632449892 16.8097059961
239 24 1 0.000 26.1220031519 12.9528768534 18.3950694563
240 24 1 0.000 24.7477563365 14.8503199465 19.4337762479
241 25 1 0.000 27.2770175859 10.4648123729 36.8889251634
242 25 1 0.000 28.0517479516 12.3135072998 35.21208499
243 25 1 0.000 28.8174220152 14.1435252832 33.487356596
244 25 1 0.000 29.1748369052 14.2800416472 30.9953417404
245 25 1 0.000 27.2158539551 14.50889467 29.395359205
246 25 1 0.000 27.1713517703 14.2506691303 26.8075947815
247 25 1 0.000 25.3191901877 13.4661031368 25.1193065823
248 25 1 0.000 23.2336339946 12.8984315476 23.8084270083
249 25 1 0.000 20.6727697444 12.9598101648 23.364990685
250 25 1 0.000 18.1508180326 12.8144793584 22.8292983228
251 26 1 0.000 50.5871329923 21.3646497262 37.1880249924
252 26 1 0.000 51.3801103287 18.9404899531 37.0935384696
253 26 1 0.000 50.1893275324 17.1483633227 37.9103255498
254 26 1 0.000 50.3829765322 14.804769703 37.582578783
255 26 1 0.000 48.5249296969 13.4775780359 38.3862785661
256 26 1 0.000 46.9917004387 14.7786219821 40.126136628
257 26 1 0.000 45.3143496726 15.8615353522 41.7329181083
258 26 1 0.000 43.8197373465 16.1207283307 43.5094582247
259 26 1 0.000 43.0397666873 15.8436108611 45.9264159534
260 26 1 0.000 42.2773980396 15.7214717126 48.4153135062
261 27 1 0.000 7.1285727978 33.7142209946 53.513711145006
262 27 1 0.000 8.4520290762 33.1214228699 1.84226414621
263 27 1 0.000 10.1554738166 32.5409595899 3.80096492666
264 27 1 0.000 11.9606339975 31.3357458315 4.71511666009
265 27 1 0.000 12.7903740083 29.0612972127 4.43662327753
266 27 1 0.000 12.852155725 26.5160732231 4.3654600918
267 27 1 0.000 13.6032913333 24.5133136673 3.01894920933
268 27 1 0.000 14.3078286394 23.5755698638 1.022900185273
269 27 1 0.000 15.785645153 23.5325994571 52.901972181
270 27 1 0.000 17.8428231413 23.3115665646 51.5662885511
271 28 1 0.000 30.2693326676 41.9258146557 2.14017348802
272 28 1 0.000 29.0245345383 43.6796468336 3.39894035866
273 28 1 0.000 28.0575257111 45.0741829905 5.2267493568
274 28 1 0.000 29.1502209624 45.658811632 7.5391162019
275 28 1 0.000 31.2403993631 47.0100549026 8.1347628964
276 28 1 0.000 33.6217499693 47.5583239692 8.2728647851
277 28 1 0.000 36.1766752202 47.6629148528 7.7714627537
278 28 1 0.000 36.6171286072 48.6658532821 5.63896696749
279 28 1 0.000 36.4023571936 49.8703414614 3.40473692947
280 28 1 0.000 35.2225387037 52.2604527634 2.83187341871
281 29 1 0.000 7.5401911339 0.5275980167468 46.5284047467
282 29 1 0.000 8.1697250597 52.3603676928 44.8655655626
283 29 1 0.000 8.6593028391 50.2357108482 43.5064484151
284 29 1 0.000 9.3493554365 48.0304609769 42.3332676303
285 29 1 0.000 10.7835297109 45.9635817273 42.1861900594
286 29 1 0.000 12.363867864 43.8059244703 42.1633477544
287 29 1 0.000 13.7274997259 41.7259847969 41.8397932224
288 29 1 0.000 14.6944010599 39.6135821771 41.990874915
289 29 1 0.000 15.5006000599 37.3869949056 43.1095029008
290 29 1 0.000 16.1503695806 35.1182165531 43.9310196818
291 30 1 0.000 4.98056036817 39.8366843137 49.0400371113
292 30 1 0.000 2.49623127637 40.2881288804 48.9351774947
293 30 1 0.000 -0.0559233373000017 40.4661376196 48.7582974341
294 30 1 0.000 51.1586474634 40.8781859285 48.6845033523
295 30 1 0.000 48.5556727521 41.0772633349 48.4389082636
296 30 1 0.000 46.1829216019 41.3761213042 47.6664083818
297 30 1 0.000 43.8203016858 41.7344498864 46.8388451083
298 30 1 0.000 41.4484373545 42.3392603762 46.064867195
299 30 1 0.000 39.2030118997 42.8400174484 45.1691532327
300 30 1 0.000 37.2025365744 44.1899976739 44.6918834247
301 31 1 0.000 1.66481705898 12.0144343441 27.4920039859
302 31 1 0.000 3.76043730293 12.6690410588 26.7209552623
303 31 1 0.000 6.4445935662 12.5231459131 26.8698333443
304 31 1 0.000 8.0681977323 14.233712078 27.8093507856
305 31 1 0.000 9.6136812153 15.9166524905 28.9273338122
306 31 1 0.000 11.6566432279 16.3025262052 27.8379171035
307 31 1 0.000 13.2349658835 16.4851302787 25.8355606472
308 31 1 0.000 15.0762437796 16.5056883532 24.0178506352
309 31 1 0.000 16.9234338017 16.9056705504 22.3958588671
310 31 1 0.000 19.3316845812 17.0474272079 21.3557009173
311 32 1 0.000 46.3993591601 35.8858792409 4.06459737432
312 32 1 0.000 47.9930533433 34.0416452818 3.36531379837
313 32 1 0.000 50.3622572179 33.1844407584 3.24959468124
314 32 1 0.000 52.9442438819 33.0194655697 3.37381651049
315 32 1 0.000 0.679774366349 33.3014202333 5.42315018252
316 32 1 0.000 2.36039480686 33.504018042 7.4816073399
317 32 1 0.000 3.56626696111 31.5061494268 8.6467261347
318 32 1 0.000 4.6954910891 29.5874226801 9.7863690411
319 32 1 0.000 5.2019990475 27.4330170924 10.6970514315
320 32 1 0.000 5.1539227138 24.9529071087 10.9263881737
321 33 1 0.000 46.0338554068 0.82155709095 44.2972221409
322 33 1 0.000 48.2417657348 2.01873035799 43.9823476848
323 33 1 0.000 49.7643531662 2.39867044805 46.100071218
324 33 1 0.000 51.3364949628 2.69239292972 48.2421150877
325 33 1 0.000 52.3284153391 4.84372958656 48.4298519615
326 33 1 0.000 51.758513266 6.5367152386 50.2944021354
327 33 1 0.000 51.1130703466 7.7282773606 52.4337049285
328 33 1 0.000 50.7559510629 7.6543489123 1.12880221718
329 33 1 0.000 49.2169171719 6.3745617464 2.66578836272
330 33 1 0.000 50.0270128004 5.15938605569 4.66272716174
331 34 1 0.000 40.777007954 0.809569718019 45.9894338419
332 34 1 0.000 39.529280635 1.78851754621 47.78878939
333 34 1 0.000 37.0227810707 1.74290011946 47.3564517396
334 34 1 0.000 34.585668367 1.55885294975 46.6049130318
335 34 1 0.000 32.0320867811 1.34537682921 45.8986558345
336 34 1 0.000 31.3376000892 0.539066573748 43.9212915472
337 34 1 0.000 31.6556455947 0.673443823068 41.3312428932
338 34 1 0.000 33.7196494012 1.19909470799 40.0835424475
339 34 1 0.000 34.2027775886 1.30794769697 37.6473703093
340 34 1 0.000 35.4510961202 1.6574913974 35.4403199269
341 35 1 0.000 33.1663281542 24.7104561961 29.3449180209
342 35 1 0.000 34.5268964599 26.9096327016 28.8860832967
343 35 1 0.000 35.4951952055 29.2286641251 28.5573422178
344 35 1 0.000 35.9509932468 30.6283330823 26.6019065433
345 35 1 0.000 36.9904256175 31.6583329247 24.6151634743
346 35 1 0.000 38.916300662 32.136704538 22.8663566035
347 35 1 0.000 39.9182179059 32.2160882662 20.6906404889
348 35 1 0.000 39.4909324359 30.0420114229 19.291804604
349 35 1 0.000 40.2925092283 28.224489524 17.6411658981
350 35 1 0.000 41.2901267442 26.224847271 16.6943389192
351 36 1 0.000 0.285530693631 7.8702490045 4.95870968794
352 36 1 0.000 1.04298770829 6.5387038628 2.93099289843
353 36 1 0.000 1.47279658116 5.23851448754 0.792018497056
354 36 1 0.000 0.473060105555 3.20387244862 53.1549305539
355 36 1 0.000 53.5068433507114 1.23450296807 51.565294239
356 36 1 0.000 0.834522652001 52.5727473827 51.7807374851
357 36 1 0.000 1.46364084785 50.9462946468 49.7598115785
358 36 1 0.000 1.87000276647 49.6639545174 47.5815693737
359 36 1 0.000 3.75108539453 50.1770733076 46.2702867002
360 36 1 0.000 3.69259028242 49.8530350562 43.9791497621
361 37 1 0.000 44.948819046 17.8739424227 1.62315000733
362 37 1 0.000 45.6472829863 20.2337406423 0.99262176943
363 37 1 0.000 46.1542209175 22.5918189707 0.105840492050002
364 37 1 0.000 46.1195543605 25.0382567095 53.032845152
365 37 1 0.000 46.3019165743 27.4391710781 53.1754348818
366 37 1 0.000 47.3802614834 29.4094676875 52.1313265569
367 37 1 0.000 48.9855649322 31.3624041451 52.8408891701
368 37 1 0.000 50.5171549191 33.4042374791 52.7324554046
369 37 1 0.000 51.8463620837 35.5574875149 52.6833578855
370 37 1 0.000 53.57988073413 37.3757081196 52.3166448337
371 38 1 0.000 42.4251205697 7.7057575352 14.7683563815
372 38 1 0.000 43.3007333036 6.2366748441 16.3120124801
373 38 1 0.000 44.7569168107 6.959109768 18.2615897752
374 38 1 0.000 46.6235362287 7.031130212 20.0578011472
375 38 1 0.000 48.6449189814 6.6233816311 21.6190861306
376 38 1 0.000 50.5862193001 5.9450189192 23.0817998496
377 38 1 0.000 52.4553110617 4.9109343352 24.501731275
378 38 1 0.000 0.536373331622 3.97011085152 26.0851867309
379 38 1 0.000 2.61065510044 3.13999192719 27.2413298435
380 38 1 0.000 4.78485824825 2.57736983106 28.5601907876
381 39 1 0.000 44.5711148145 2.23273050788 2.05235423095
382 39 1 0.000 46.943355372 2.57645613886 1.99711347547
383 39 1 0.000 48.044354473 0.87010908206 0.552171338493
384 39 1 0.000 49.2193088956 53.4295219333 52.3723531846
385 39 1 0.000 49.5580199688 52.2937487821 50.3196630374
386 39 1 0.000 48.9532632256 51.2869405976 47.9609666231
387 39 1 0.000 47.0945714311 50.3121385134 46.8658796481
388 39 1 0.000 44.8779004073 49.1231293549 47.2614814974
389 39 1 0.000 42.441540156 49.7437413451 47.528387113
390 39 1 0.000 40.050353922 50.0125818383 47.6055941039
391 40 1 0.000 51.0402437036 5.9652813874 36.571605237
392 40 1 0.000 53.217733456 7.2578871174 36.1842534908
393 40 1 0.000 1.53902582901 8.7966254021 35.9659885482
394 40 1 0.000 3.47582755729 10.3934906347 36.0587551798
395 40 1 0.000 3.08938950329 12.9751010725 36.3706735729
396 40 1 0.000 2.46276326855 15.4151160926 36.3082737703
397 40 1 0.000 2.15806573116 18.0223905319 36.3825515715
398 40 1 0.000 2.10022095291 20.5138679215 36.7992758346
399 40 1 0.000 2.21760890197 23.0632841459 36.8116644259
400 40 1 0.000 4.24542512269 23.9033435039 35.8443599924
401 41 1 0.000 36.0624636952 44.9654267454 50.9456496876
402 41 1 0.000 33.862507864 45.6183673155 50.0091689292
403 41 1 0.000 31.5521296431 45.859017717 50.0042511153
404 41 1 0.000 29.3738336917 46.2592149006 51.2401541823
405 41 1 0.000 27.7321437947 47.7182738508 51.9184900209
406 41 1 0.000 25.8803853116 49.4976356637 51.6394108004
407 41 1 0.000 23.8422336197 51.0512617566 51.5340943377
408 41 1 0.000 21.7744944245 52.308340984 52.0642508001
409 41 1 0.000 19.6398944589 51.2181449496 52.5174421313
410 41 1 0.000 18.0394819507 52.5833085896 53.478111278297
411 42 1 0.000 53.2469984797 2.58449931755 20.1204965561
412 42 1 0.000 52.3409114236 2.77609788456 17.9332249225
413 42 1 0.000 49.7438488383 2.28511194424 17.5936539037
414 42 1 0.000 47.4978859175 2.61792432809 16.529498097
415 42 1 0.000 47.6366058921 4.21707379119 14.5910463481
416 42 1 0.000 47.5278227737 5.6028680636 12.4750427061
417 42 1 0.000 47.7743853012 7.1947079891 10.7435959871
418 42 1 0.000 49.161746287 8.9188720438 10.1779398954
419 42 1 0.000 51.6563141061 8.6608346172 10.3286991084
420 42 1 0.000 54.21388100239 8.287456987 10.2979291799
421 43 1 0.000 38.2045075649 41.6978753251 33.9683349194
422 43 1 0.000 38.4638349099 41.5787728595 36.5954418541
423 43 1 0.000 39.2935480474 39.6875106254 37.6820906129
424 43 1 0.000 40.0668810015 37.8398100106 39.1273904335
425 43 1 0.000 41.3676293414 36.2908598719 40.7470979711
426 43 1 0.000 42.3619414414 36.7003014707 43.2110033549
427 43 1 0.000 43.4225230992 37.5595752382 45.4826571505
428 43 1 0.000 45.7864329337 36.897309633 46.3921033691
429 43 1 0.000 48.1890134469 36.1625667377 47.0043846363
430 43 1 0.000 50.6716495208 35.930408299 47.0205086163
431 44 1 0.000 13.1976119965 46.3614946804 29.1124102293
432 44 1 0.000 12.8783840658 43.9038507755 29.348599663
433 44 1 0.000 14.5160698411 42.3034651406 30.5056027212
434 44 1 0.000 16.4477226451 41.1564320767 31.3310698773
435 44 1 0.000 17.774269353 42.0659857885 33.511273833
436 44 1 0.000 19.010978619 42.4620982305 35.6782561251
437 44 1 0.000 20.337444707 42.3147519266 37.8252715553
438 44 1 0.000 22.8170172247 42.8417104663 38.4899557575
439 44 1 0.000 25.0001503701 43.7653457873 38.4351073522
440 44 1 0.000 26.5042758444 45.4859088198 37.4485885092
441 45 1 0.000 20.4272284023 0.686056000224 23.5073654284
442 45 1 0.000 22.4009647941 1.76989972397 24.6338672911
443 45 1 0.000 24.3357886475 3.04889950218 25.8553662693
444 45 1 0.000 26.2742403964 4.28189487812 24.6765958381
445 45 1 0.000 28.3290535343 4.12095874641 23.3612821696
446 45 1 0.000 30.4020867696 2.91134045414 22.2426541838
447 45 1 0.000 32.5821832321 2.36615106772 21.268335819
448 45 1 0.000 35.0660286045 2.37369709036 20.4927992543
449 45 1 0.000 36.7946267537 2.16905959819 18.9934034808
450 45 1 0.000 37.4575641914 1.5410493885 16.9009139763
451 46 1 0.000 50.9073821084 3.4517141452 40.6806671735
452 46 1 0.000 49.6219246762 1.80939541298 39.2904307446
453 46 1 0.000 48.7937970634 -0.0798244503200016 37.643581174
454 46 1 0.000 48.4344741691 52.0188886697 35.675918148
455 46 1 0.000 47.9041027203 50.479612919 33.7047884663
456 46 1 0.000 46.4876916972 50.2242628224 31.5925470863
457 46 1 0.000 46.3725396067 48.1353743401 30.3312756241
458 46 1 0.000 46.505320582 46.0039722972 28.9066682445
459 46 1 0.000 45.8923137357 45.8030406331 26.4169107461
460 46 1 0.000 44.5772688002 45.5555106668 24.4202514294
461 47 1 0.000 26.3568489206 51.4011521226 4.38139058404
462 47 1 0.000 26.9945523296 53.21256034575 3.10214357147
463 47 1 0.000 27.5422570569 1.91361007038 2.7772480618
464 47 1 0.000 28.922657858 3.62203443327 1.84962205575
465 47 1 0.000 31.4359294939 3.3712286117 2.00073062165
466 47 1 0.000 34.0790529154 3.52518843473 2.24234846195
467 47 1 0.000 36.6545899874 4.01319950074 2.43776303756
468 47 1 0.000 38.828424971 2.89144077549 3.30011917257
469 47 1 0.000 40.8101427329 4.45009217549 2.82395923186
470 47 1 0.000 42.0391931084 6.4733211239 1.71292564064
471 48 1 0.000 2.89543952253 7.8291059822 29.9077524161
472 48 1 0.000 2.25280486298 6.1773385977 31.3777487994
473 48 1 0.000 1.94477234906 3.78495381452 32.1367314113
474 48 1 0.000 1.32456614569 1.3443905791 33.1140058391
475 48 1 0.000 0.591259359542 52.8094742824 33.6223680552
476 48 1 0.000 53.2238874417 50.5772167446 34.3067503863
477 48 1 0.000 -0.449814701055002 48.5513461508 32.8927848335
478 48 1 0.000 52.9238739205 47.0689880495 30.8210683899
479 48 1 0.000 52.6288857064 45.5483892423 28.7250316098
480 48 1 0.000 52.6572370379 44.5909741832 26.4233872114
481 49 1 0.000 46.8523355049 40.9778858715 41.7230556072
482 49 1 0.000 44.3249285132 41.3610991295 41.6770485176
483 49 1 0.000 42.3324614313 42.5031337596 40.9797132559
484 49 1 0.000 40.7973779154 44.018734133 39.680308581
485 49 1 0.000 39.3447954305 46.0811255415 38.8517509954
486 49 1 0.000 37.7028099272 48.0441126133 38.2649724899
487 49 1 0.000 35.7014209097 49.2120262313 38.5929342431
488 49 1 0.000 33.9040271125 49.8471498035 40.2541610292
489 49 1 0.000 31.7996058628 50.168957571 42.0473894649
490 49 1 0.000 29.9443538507 49.1669328339 41.3201442203
491 50 1 0.000 32.1964170106 39.0067830631 42.6155716468
492 50 1 0.000 30.3511081195 38.1771774188 44.1463016881
493 50 1 0.000 28.5962816295 37.5158523791 45.7431669207
494 50 1 0.000 26.7593840813 36.8225212391 47.4251398944
495 50 1 0.000 24.1437251724 36.7058911171 47.4560173161
496 50 1 0.000 22.5129189619 38.7815041892 47.7126842044
497 50 1 0.000 20.9208371767 40.8632175004 48.4676626946
498 50 1 0.000 19.4262248506 42.9716966184 48.982770109
499 50 1 0.000 17.8687558758 44.9874091048 49.6003722896
500 50 1 0.000 16.9463298533 47.3030544925 49.3806293155
501 51 1 0.000 50.14020314 24.3932168896 3.18642630226
502 51 1 0.000 50.9282357892 24.3157142924 0.98106087577
503 51 1 0.000 52.3334137729 26.5922321553 0.79464079367
504 51 1 0.000 52.7005030509 28.2230652391 52.5739835545
505 51 1 0.000 53.1080097721 29.9429026925 50.7146468008
506 51 1 0.000 53.6252133039 31.7899046015 49.065539873
507 51 1 0.000 1.066252192833 33.6070234009 49.9142524336
508 51 1 0.000 3.68779339837 33.28795671 49.3085551249
509 51 1 0.000 6.173334476 33.1556057075 48.6182069212
510 51 1 0.000 8.636272421 32.9614998616 48.2121244849
511 52 1 0.000 35.5532415335 37.6849929293 32.5440500194
512 52 1 0.000 33.7395893898 39.3212544197 32.0173602127
513 52 1 0.000 32.4778342082 41.2520741514 32.0649797003
514 52 1 0.000 31.4113404244 43.5501175276 32.7348773227
515 52 1 0.000 30.8898909112 45.9531280136 32.8045597896
516 52 1 0.000 31.1504006814 48.5941553177 32.6191608929
517 52 1 0.000 31.487176877 51.162194739 32.7816368647
518 52 1 0.000 31.0082409244 53.4169183556 33.5867609327
519 52 1 0.000 30.6016747687 1.70217900797 35.0383759788
520 52 1 0.000 30.8333763613 3.91063755129 36.2159908581
521 53 1 0.000 15.2270029926 14.3040663774 17.2821923567
522 53 1 0.000 13.0906831358 14.3958118236 18.4644025703
523 53 1 0.000 11.9005990453 15.0307472827 20.4075034001
524 53 1 0.000 10.9947807222 16.9113139434 21.5099805326
525 53 1 0.000 9.6205339068 18.7033330806 20.0827395696
526 53 1 0.000 10.2849762493 21.176697866 19.6868689873
527 53 1 0.000 10.9063675652 23.5976328431 19.1828871191
528 53 1 0.000 11.4476764471 26.0317088639 18.4400822338